VARIABLES="X" "Y" "Z" "Tem"
ZONE T="Test"
ZONETYPE=FEPOLYGON
Nodes=5
Elements=1
Faces=5
NumConnectedBoundaryFaces=0 
TotalNumBoundaryConnections=0 
# X Data 
0 0 .5 1 1
# Y Data
0 1 1.5 1 0
# Z Data
1 2 3.6 2 1.2
# Tem
1 2 3 4 5 
# Face Nodes List
1 2 2 3 3 4 4 5 5 1

